# vtk DataFile Version 4.2
vtk output
ASCII
DATASET POLYDATA
FIELD FieldData 4
avtRealDims 1 6 int
1 41 0 16 0 32 
group_id 1 1 int
0 
base_index 1 3 int
0 0 0 
avtOriginalBounds 1 6 double
0.071875 0.2 0 0.053125 0 0.1 
POINTS 24323 double
-0.10082147832 0.019950186945 0 -0.097993191452 0.018617294761 0 -0.10215054506 0.017113759425 0 
-0.099322258187 0.015780867249 0 -0.099492411586 0.022786614454 0 -0.096664124717 0.021453722274 0 
-0.098163344851 0.025623041967 0 -0.095335057982 0.024290149786 0 -0.096834278116 0.028459469481 0 
-0.094005991247 0.027126577299 0 -0.095505211381 0.031295896995 0 -0.092676924512 0.029963004813 0 
-0.091918000163 0.033068124423 0 -0.094674797577 0.033068124453 0 -0.091347857777 0.032799432327 0 
-0.091221956527 0.033068124456 0 -0.094176144646 0.034132324515 0 -0.090018791042 0.035635859844 0 
-0.092847077912 0.036968752027 0 -0.091518011177 0.03980517954 0 -0.088689724307 0.038472287356 0 
-0.090188944442 0.042641607052 0 -0.087360657573 0.041308714869 0 -0.088859877707 0.045478034565 0 
-0.086031590838 0.044145142381 0 -0.087530810972 0.048314462077 0 -0.084702524103 0.046981569894 0 
-0.086201744237 0.05115088959 0 -0.083373457368 0.049817997406 0 -0.084872677502 0.053987317103 0 
-0.082044390633 0.052654424919 0 -0.083543610767 0.056823744615 0 -0.080715323898 0.055490852431 0 
-0.082214544032 0.059660172128 0 -0.079386257163 0.058327279944 0 -0.080885477297 0.06249659964 0 
-0.078057190428 0.061163707463 0 -0.079556410562 0.065333027156 0 -0.076728123693 0.064000134976 0 
-0.078227343827 0.068169454669 0 -0.075399056958 0.066836562489 0 -0.076898277092 0.071005882181 0 
-0.074069990223 0.069672990001 0 -0.075569210357 0.073842309695 0 -0.072740923488 0.072509417514 0 
-0.095164904583 0.017284402577 0 -0.096493971318 0.014447975065 0 -0.093835837848 0.02012083009 0 
-0.092506771113 0.022957257606 0 -0.091177704378 0.025793685119 0 -0.089848637643 0.028630112633 0 
-0.088519570908 0.031466540145 0 -0.087769115516 0.033068124374 0 -0.087190504173 0.03430296766 0 
-0.085861437438 0.037139395172 0 -0.084532370703 0.039975822685 0 -0.083203303968 0.042812250197 0 
-0.081874237234 0.04564867771 0 -0.080545170499 0.048485105223 0 -0.079216103764 0.051321532735 0 
-0.077887037029 0.054157960255 0 -0.076557970294 0.056994387767 0 -0.075228903559 0.05983081528 0 
-0.073899836824 0.062667242792 0 -0.072570770089 0.065503670305 0 -0.071241703354 0.068340097817 0 
-0.069912636619 0.071176525332 0 -0.092336617714 0.015951510401 0 -0.093665684449 0.013115082881 0 
-0.091007550979 0.018787937913 0 -0.089678484244 0.021624365426 0 -0.088349417509 0.024460792938 0 
-0.087020350774 0.027297220451 0 -0.085691284039 0.030133647965 0 -0.084570269056 0.033068124426 0 
-0.084362217304 0.032970075478 0 -0.084316274427 0.033068124461 0 -0.083033150569 0.035806502989 0 
-0.081704083834 0.038642930501 0 -0.080375017099 0.041479358014 0 -0.089508330845 0.014618618217 0 
-0.09083739758 0.011782190704 0 -0.08817926411 0.01745504573 0 -0.086850197375 0.020291473242 0 
-0.08552113064 0.023127900758 0 -0.084192063905 0.025964328271 0 -0.08286299717 0.028800755783 0 
-0.081533930435 0.031637183297 0 -0.080863433416 0.03306812438 0 -0.0802048637 0.034473610805 0 
-0.078875796965 0.037310038317 0 -0.07754673023 0.04014646583 0 -0.079045950364 0.044315785526 0 
-0.077716883629 0.047152213039 0 -0.076387816895 0.049988640551 0 -0.07505875016 0.052825068078 0 
-0.073729683425 0.055661495583 0 -0.07240061669 0.058497923096 0 -0.071071549955 0.061334350609 0 
-0.06974248322 0.064170778125 0 -0.068413416485 0.067007205637 0 -0.06708434975 0.069843633151 0 
-0.076217663495 0.042982893357 0 -0.07488859676 0.045819320869 0 -0.073559530025 0.048655748382 0 
-0.07223046329 0.051492175894 0 -0.070901396555 0.054328603407 0 -0.069572329821 0.057165030919 0 
-0.068243263086 0.060001458432 0 -0.066914196351 0.062837885944 0 -0.065585129616 0.065674313457 0 
-0.064256062881 0.068510740969 0 -0.086680043976 0.013285726033 0 -0.088009110711 0.010449298521 0 
-0.085350977241 0.016122153546 0 -0.084021910506 0.018958581065 0 -0.082692843771 0.021795008578 0 
-0.081363777036 0.02463143609 0 -0.080034710301 0.027467863603 0 -0.078705643566 0.030304291116 0 
-0.077410592326 0.033068124467 0 -0.077376576831 0.033140718635 0 -0.076047510096 0.035977146148 0 
-0.074718443361 0.03881357366 0 -0.083851757106 0.011952833849 0 -0.085180823841 0.009116406337 0 
-0.082522690372 0.014789261369 0 -0.081193623637 0.017625688882 0 -0.079864556902 0.020462116394 0 
-0.078535490167 0.023298543907 0 -0.077206423432 0.026134971419 0 -0.075877356697 0.028971398934 0 
-0.077222537907 0.03306812441 0 -0.074548289962 0.031807826448 0 -0.073957751315 0.033068124385 0 
-0.073219223227 0.034644253964 0 -0.071890156492 0.037480681476 0 -0.081023470237 0.01061994168 0 
-0.082352536972 0.0077835141532 0 -0.079694403502 0.013456369185 0 -0.078365336767 0.016292796698 0 
-0.077036270032 0.01912922421 0 -0.075707203298 0.02196565173 0 -0.074378136563 0.024802079239 0 
-0.073049069828 0.027638506752 0 -0.071720003093 0.030474934266 0 -0.070504910225 0.033068124472 0 
-0.078195183368 0.0092870494961 0 -0.079524250103 0.0064506219835 0 -0.076866116633 0.012123477009 0 
-0.075537049898 0.014959904521 0 -0.074207983163 0.017796332034 0 -0.072878916428 0.020632759546 0 
-0.071549849693 0.023469187059 0 -0.070220782959 0.026305614571 0 -0.068891716224 0.029142042086 0 
-0.069874806864 0.033068124442 0 -0.067562649489 0.031978469599 0 -0.067052069215 0.033068124391 0 
-0.070390936358 0.03331136178 0 -0.069061869623 0.036147789293 0 -0.066233582754 0.034814897109 0 
-0.073389376626 0.041650001173 0 -0.072060309891 0.044486428685 0 -0.070731243156 0.047322856198 0 
-0.069402176421 0.05015928371 0 -0.068073109686 0.052995711223 0 -0.066744042951 0.055832138736 0 
-0.065414976216 0.058668566248 0 -0.064085909482 0.061504993761 0 -0.062756842747 0.064341421277 0 
-0.061427776012 0.067177848789 0 -0.070561089757 0.040317108989 0 -0.069232023022 0.043153536502 0 
-0.067902956287 0.045989964014 0 -0.066573889552 0.048826391527 0 -0.065244822817 0.051662819039 0 
-0.063915756082 0.054499246552 0 -0.062586689347 0.057335674064 0 -0.061257622612 0.060172101584 0 
-0.059928555877 0.063008529096 0 -0.058599489143 0.065844956609 0 -0.067732802888 0.038984216805 0 
-0.066403736153 0.041820644318 0 -0.065074669418 0.04465707183 0 -0.063745602683 0.047493499343 0 
-0.062416535948 0.050329926855 0 -0.064904516019 0.037651324622 0 -0.063575449284 0.040487752134 0 
-0.062246382549 0.043324179647 0 -0.060917315814 0.046160607159 0 -0.059588249079 0.048997034672 0 
-0.061087469213 0.053166354368 0 -0.059758402478 0.056002781888 0 -0.058429335743 0.0588392094 0 
-0.057100269008 0.061675636913 0 -0.055771202273 0.064512064425 0 -0.058259182344 0.051833462198 0 
-0.056930115609 0.054669889704 0 -0.055601048874 0.057506317216 0 -0.054271982139 0.060342744729 0 
-0.052942915404 0.063179172249 0 -0.075366896499 0.0079541573123 0 -0.076695963234 0.0051177297998 0 
-0.074037829764 0.010790584825 0 -0.072708763029 0.013627012337 0 -0.071379696294 0.01646343985 0 
-0.070050629559 0.019299867363 0 -0.068721562824 0.022136294875 0 -0.067392496089 0.024972722391 0 
-0.066063429354 0.027809149904 0 -0.06473436262 0.030645577417 0 -0.063599228125 0.033068124478 0 
-0.063405295885 0.033482004925 0 -0.07253860963 0.0066212651286 0 -0.073867676365 0.003784837616 0 
-0.071209542895 0.0094576926411 0 -0.06988047616 0.012294120154 0 -0.068551409425 0.015130547666 0 
-0.06722234269 0.017966975186 0 -0.065893275955 0.020803402698 0 -0.06456420922 0.023639830211 0 
-0.063235142485 0.026476257723 0 -0.06190607575 0.029312685236 0 -0.062527075652 0.033068124396 0 
-0.060577009015 0.032149112749 0 -0.069710322761 0.0052883729448 0 -0.071039389496 0.0024519454323 0 
-0.068381256026 0.0081248004574 0 -0.067052189291 0.01096122797 0 -0.065723122556 0.01379765549 0 
-0.064394055821 0.016634083002 0 -0.063064989086 0.019470510515 0 -0.061735922351 0.022306938027 0 
-0.060406855616 0.025143365543 0 -0.059077788881 0.027979793056 0 -0.057748722146 0.030816220568 0 
-0.066882035892 0.0039554807611 0 -0.068211102627 0.0011190532485 0 -0.065552969157 0.0067919082736 0 
-0.064223902422 0.0096283358003 0 -0.062894835687 0.012464763306 0 -0.061565768952 0.015301190818 0 
-0.060236702217 0.018137618331 0 -0.058907635482 0.02097404585 0 -0.057578568747 0.023810473359 0 
-0.056249502012 0.026646900876 0 -0.054920435277 0.029483328386 0 -0.064053749023 0.0026225885914 0 
-0.065382815758 -0.00021383892112 0 -0.062724682288 0.005459016104 0 -0.061395615553 0.0082954436165 0 
-0.060066548818 0.011131871129 0 -0.058737482083 0.013968298642 0 -0.057408415348 0.016804726154 0 
-0.056079348613 0.019641153667 0 -0.054750281878 0.022477581179 0 -0.053421215143 0.025314008692 0 
-0.052092148408 0.028150436206 0 -0.061225462153 0.0012896964077 0 -0.062554528888 -0.0015467311049 0 
-0.059896395418 0.0041261239202 0 -0.058567328684 0.0069625514328 0 -0.057238261949 0.0097989789453 0 
-0.055909195214 0.012635406458 0 -0.054580128479 0.01547183397 0 -0.053251061744 0.018308261483 0 
-0.051921995009 0.021144688995 0 -0.050592928274 0.023981116512 0 -0.049263861539 0.026817544024 0 
-0.058397175284 -4.319577609e-05 0 -0.059726242019 -0.0028796232886 0 -0.057068108549 0.0027932317365 0 
-0.055739041814 0.005629659249 0 -0.054409975079 0.0084660867615 0 -0.053080908345 0.011302514274 0 
-0.055568888415 -0.0013760879598 0 -0.05689795515 -0.0042125154724 0 -0.05423982168 0.0014603395527 0 
-0.052740601546 -0.0027089801436 0 -0.054069668281 -0.0055454076561 0 -0.051411534811 0.00012744736894 0 
-0.052910754945 0.0042967670652 0 -0.05158168821 0.0071331945778 0 -0.050252621475 0.0099696220903 0 
-0.050082468076 0.0029638748815 0 -0.048753401341 0.0058003024081 0 -0.047424334606 0.0086367299207 0 
-0.05175184161 0.014138941794 0 -0.050422774875 0.016975369306 0 -0.04909370814 0.019811796819 0 
[...]
CELL_DATA 34378
SCALARS N2_B3 double
LOOKUP_TABLE default
0 0 0 0 0 0 0 0 0 
0 0 0 0 0 0 0 0 0 
0 0 0 0 0 0 0 0 0 
0 0 0 0 0 0 0 0 0 
0 0 0 0 0 0 0 0 0 
0 0 0 0 0 0 0 0 0 
0 0 0 0 0 0 0 0 0 
0 0 0 0 0 0 0 0 0 
0 0 0 0 0 0 0 0 0 
0 0 0 0 0 0 0 0 0 
0 0 0 0 0 0 0 0 0 
0 0 0 0 0 0 0 0 0 
0 0 0 0 0 0 0 0 0 
0 0 0 0 0 0 0 0 0 
0 0 0 0 0 0 0 0 0 
0 0 0 0 0 0 0 0 0 
0 0 0 0 0 0 0 0 0 
0 0 0 0 0 0 0 0 0 
0 0 0 0 0 0 0 0 0 
0 0 0 0 0 0 0 0 0 
0 0 0 0 0 0 0 0 0 
0 0 0 0 0 0 0 0 0 
0 0 0 0 0 0 0 0 0 
0 0 0 0 0 0 0 0 0 
0 0 0 0 0 0 0 0 0 
0 0 0 0 0 0 0 0 0 
0 0 0 0 0 0 0 0 0 
0 0 0 0 0 0 0 0 0 
0 0 0 0 0 0 0 0 0 
0 0 0 0 0 0 0 0 0 
0 0 0 0 0 0 0 0 0 
0 0 0 0 0 0 0 0 0 
0 0 0 0 0 0 0 0 0 
0 0 0 0 0 0 0 0 0 
0 0 0 0 0 0 0 0 0 
0 0 0 0 0 0 0 0 0 
0 0 0 0 0 0 0 0 0 
0 0 0 0 0 0.108582112 0.108582112 0.24240214233 0.24240214233 
0.32116529089 0.32116529089 0.32131796992 0.32131796992 2.1479627298 2.1479627298 1.3335144182 1.3335144182 2.118269557 
2.118269557 2.8588378104 2.8588378104 3.5113175753 3.5113175753 4.0435334181 4.0435334181 4.4485961692 4.4485961692 
5.7202467183 5.7202467183 6.7788635833 6.7788635833 6.7814616729 6.7814616729 6.7814616729 37.235582152 13.299322228 
13.299322228 26.172181761 26.172181761 41.604523936 41.604523936 64.168131825 64.168131825 85.181896265 85.181896265 
101.19724965 101.19724965 112.00169826 112.00169826 117.44501586 117.44501586 117.45181839 117.45181839 120.33382436 
120.33382436 159.87345369 159.87345369 195.45559364 195.45559364 532.11722939 532.11722939 948.84711044 948.84711044 
1282.5169934 1282.5169934 1507.4369255 1507.4369255 1660.7067172 1660.7067172 1660.8743581 1660.8743581 1337.2559709 
1337.2559709 2683.3715148 2683.3715148 4307.1455075 4307.1455075 5709.5705287 5709.5705287 6855.6828601 6855.6828601 
7729.2050665 7729.2050665 8318.3764797 8318.3764797 8640.3619036 8640.3619036 8640.3855718 8640.3855718 7150.5648272 
7150.5648272 9366.2509226 9366.2509226 11579.300498 11579.300498 20231.891155 20231.891155 37739.130059 37739.130059 
52823.380641 52823.380641 62987.308589 62987.308589 68100.054204 68100.054204 68095.066457 68095.066457 32792.551763 
32792.551763 68430.529026 68430.529026 99975.742129 99975.742129 126884.01962 126884.01962 133468.95415 133468.95415 
173929.04665 173929.04665 230437.67178 230437.67178 346739.77798 346739.77798 148821.98562 148821.98562 165514.76712 
165514.76712 179433.59432 179433.59432 188085.98335 188085.98335 188047.16088 188047.16088 581381.89709 581381.89709 
774505.4074 774505.4074 904154.07432 904154.07432 969536.42235 969536.42235 969785.63163 969785.63163 2.0354337541 
2.0354337541 1.817189843 1.817189843 1.4933596974 1.4933596974 1.0681372653 1.0681372653 0.54685342734 0.54685342734 
0.076136278189 0.076136278189 0 0 0 0 0 0 0 
0 5.727535124 34.049145102 34.049145102 34.049145102 30.239538377 30.239538377 24.650995478 24.650995478 
17.318158429 17.318158429 8.8393695198 8.8393695198 4.2742738232 4.2742738232 3.334380668 3.334380668 2.3099221251 
2.3099221251 1.2859103114 1.2859103114 0.26817572289 0.26817572289 112.02259807 112.02259807 1507.7156294 1507.7156294 
1507.7156294 1283.0247317 254.90836673 254.90836673 193.95408353 193.95408353 176.35134356 176.35134356 153.27350217 
153.27350217 125.05353231 125.05353231 5668.9634355 5096.1425809 5096.1425809 5096.1425809 4248.370374 4248.370374 
3138.1562083 3138.1562083 1887.350584 1887.350584 92.101568922 92.101568922 55.06460046 55.06460046 28.286011313 
28.286011313 11.617362625 11.617362625 3.9328299344 3.9328299344 1073.1467355 1073.1467355 352.19663277 352.19663277 
164.89504627 164.89504627 113.36606116 113.36606116 58.761715515 58.761715515 8318.5251739 8318.5251739 7729.5482407 
7729.5482407 62973.792686 62973.792686 52805.023633 52805.023633 52805.023633 37721.388504 179364.43598 179364.43598 
165455.49373 165455.49373 148746.11778 148746.11778 903534.02297 903534.02297 773236.34319 773236.34319 580058.47247 
580058.47247 580058.47247 345028.61087 20840.145014 20840.145014 12490.438408 12490.438408 10942.895 10942.895 
9078.790161 9078.790161 142536.4192 125569.73578 125569.73578 125569.73578 103341.21358 103341.21358 76175.153858 
76175.153858 455611.75442 455611.75442 260135.58634 260135.58634 206773.19952 206773.19952 1788338.1717 1499419.503 
1499419.503 1499419.503 1144835.5538 1144835.5538 7190.135474 7190.135474 5137.0865994 5137.0865994 2879.7888971 
2879.7888971 1179.8524109 1179.8524109 223.22499775 223.22499775 44478.179032 44478.179032 13377.052041 13377.052041 
9674.1596512 9674.1596512 6756.2338265 6756.2338265 3835.7288818 3835.7288818 158496.8517 158496.8517 118428.53548 
118428.53548 74317.232307 74317.232307 26983.276336 26983.276336 10218.110528 10218.110528 729226.04844 729226.04844 
288440.13348 288440.13348 186278.50174 186278.50174 128841.06241 128841.06241 72938.013716 72938.013716 0 
0 0 0 0 0 0 0 0 0 
0 0 0 0 0 0 0 0 0 
0 0 0 0 0 0 0 0 0 
0 0 0 0 0 0 0 0 0 
0 0 0 0 0 0 0 0 0 
0 0 0 0 0 0 0 0 0 
0 0 0 0 0 0 0 0 0 
0 0 0 0 0 0 0 0 0 
0 0 0 0 0 0 0 0 0 
0 0 0 0 0 0 0 0 0 
0 0 0 0 0 0 0 0 0 
0 0 0 0 0 0 0 0 0 
0 0 0 0 0 0 0 0 0 
0 0 0 0 0 0 0 0 0 
0 0 0 0 0 0 0 0 0 
0 0 0 0 0 0 0 0 0 
0 0 0 0 0 0 0 0 0 
0 0 0 0 0 0 0 0 0 
0 0 0 0 0 0 0 0 0 
0 0 0 0 0 0 0 0 0 
0 0 0 0 0 0 0 0 0 
0 0 0 0 0 0 0 0 0 
0 0 0 0 0 0 0 0 0 
0 0 0 0 0 0 0 0 0 
0 0 0 0 0 0 0 0 0 
0 0 0 0 0 0 0 0 0 
0 0 0 0 0 0 0 0 0 
0 0 0 0 0 0 0 0 0 
0 0 0 0 0 0 0 0 0 
0 0 0 0 0 0 0 0 0 
0 0 0 0 0 0 0 0 0 
0 0 0 0 0 0 0 0 0 
0 0 0 0 0 0 0 0 0 
0 0 0 0 0 0 0 0 0 
0 0 0 0 0 0 0 0 0 
0 0 0 0 0 0 0 0 0 
0 0 0 0 0 0 0 0 0 
0 0 0 0 0 0 0 0 0 
0 0 0 0 0 0 0 0 0 
0 0 0 0 0 0 0 0 0 
0 0 0 0 0 0 0 0 0 
0 0 0 0 0 0 0 0 0 
0 0 0 0 0 0 0 0 0 
0 0 0 0 0 0 0 0 0 
0 0 0 0 0 0 0 0 0 
0 0 0 0 0 0 0 0 0 
0 0 0 0 0 0 0 0 0 
0 0 0 0 2.4607260718 2.4607260718 1.0533601663 1.0533601663 0.00633477941 
0.00633477941 0 0 0 0 0 0 23.565448826 23.565448826 
4.9751198423 4.9751198423 2.7062805657 2.7062805657 1.0004173793 1.0004173793 0 0 0 
0 0 0 0 0 0 0 0 0 
0 0 0 0 0 0 0 0 0 
0 0 0 0 0 133.74733818 133.74733818 66.194537665 66.194537665 
21.909744688 21.909744688 4.06326823 4.06326823 1.989840057 1.989840057 1327.5630583 1327.5630583 193.91972451 
193.91972451 115.70424021 115.70424021 40.812037738 40.812037738 8.358834556 8.358834556 6549.7015408 6549.7015408 
3029.894879 3029.894879 740.66092665 740.66092665 149.22586156 149.22586156 61.18652148 61.18652148 17384.553409 
17384.553409 8554.7854547 8554.7854547 4554.6394686 4554.6394686 1219.2761861 1219.2761861 166.30098542 166.30098542 
0.21035323733 0.21035323733 0.21035323733 0 1.9200820612 0.10651912058 0.10651912058 0.10651912058 0 
0 0 0 0 0 2.6229841768 2.6229841768 0.48655991596 0.48655991596 
2.3356209509 2.3356209509 0.21259528477 0.21259528477 0 0 0 0 12.968521424 
12.968521424 2.8407785407 2.8407785407 2.8407785407 0.48695327942 8.5697315338 2.3359926823 2.3359926823 2.3359926823 
0.10725427263 0.10725427263 0 0 69.276838648 69.276838648 12.974029447 12.974029447 2.6238596464 
2.6238596464 6.6688574968 6.6688574968 1.9210981808 1.9210981808 0 0 0 0 
0 0 0 0 0 0 0 0 0 
0 0 0 0 0 0 0 0 0 
0 0 0 0 0 0 0 0 0 
0 0 0 0 0 0 0 0 0 
0 0 0 0 0 0 0 0 0 
0 0 0 0 0 0 0 0 0 
0 0 0 0 0 0 0 0 0 
0 0 0 0 0 0 0 0 0 
0 0 0 0 0 0 0 0 0 
0 0 0 0 0 0 0 0 0 
0 0 0 0 0 0 0 0 0 
0 0 0 0 0 0 0 0 0 
0 0 0 0 0 0 0 0 0 
0 0 0 0 0 0 0 0 0 
0 0 0 0 0 0 0 0 0 
0 0 0 0 0 0 0 0 0 
0 0 0 0 0 0 0 0 0 
0 0 0 0 0 0 0 0 0 
0 0 0 0 0 0 0 0 0 
0 0 0 0 0 0 0 0 0 
0 0 0 0 0 0 0 0 0 
0 0 0 0 0 0 0 0 0 
0 0 0 0 0 0 0 0 0 
0 0 0 0 0 0 0 0 0 
0 0 0 0 0 0 0 0 0 
0 0 0 0 0 0 0 0 0 
0 0 0 0 0 0 0 0 0 
0 0 0 0 0 0 0 0 0 
0 0 0 0 0 0 0 0 0 
0 0 0 0 0 0 0 0 0 
0 0 0 0 0 0 0 0 0 
0 0 0 0 0 0 0 0 0 
0 0 0 0 0 0 0 0 0 
0 0 0 0 0 0 0 0 0 
0 0 0 0 0 0 0 0 0 
0 0 0 0 0 0 0 0 0 
0 0 0 0 0 0 0 0 0 
0 0 0 0 0 0 0 0 0 
0 0 0 0 0 0 0 0 0 
0 0 0 0 0 0 0 0 0 
0 0 0 0 0 0 0 0 0 
0 0 0 0 0 0 0 0 0 
0 0 0 0 0 0 0 0 0 
0 0 0 0 0 0 0 0 0 
0 0 0 0 0 0 0 0 0 
0 0 0 0 0 0 0 0 0 
0 0 0 0 0 0 0 0 0 
0 0 0 0 0 0 0 0 0 
0 0 0 0 0 0 0 0 0 
0 0 0 0 0 0 0 0 0 
0 0 0 0 0 0 0 0 0 
0 0 0 0 0 0 0 0 0 
0 0 0 0 0 0 0 0 0 
0 0 0 0 0 0 0 0 0 
0 0 0 0 0 0 0 0 0 
0 0 0 0 0 0 0 0 0 
0 0 0 0 0 0 0 0 0 
0 0 0 0 0 0 0 0 0 
0 0 0 0 0 0 0 0 0 
0 0 0 0 0 0 0 0 0 
0 0 0 0 0 0 0 0 0 
0 0 0 0 0 0 0 0 0 
0 0 0 0 0 0 0 0 0 
0 0 0 0 0 0 0 0 0 
0 0 0 0 0 0 0 0 0 
0 0 0 0 0 0 0 0 0 
0 0 0 0 0 0 0 0 0 
0 0 0 0 0 0 0 0 0 
0 0 0 0 0 0 0 0 0 
0 0 0 0 0 0 0 0 0 
0 0 0 0 0 0 0 0 0 
0 0 0 0 0 0 0 0 0 
0 0 0 0 0 0 0 0 0 
0 0 0 0 0 0 0 0 0 
0 0 0 0 0 0 0 0 0 
0 0 0 0 0 0 0 0 0 
0 0 0 0 0 0 0 0 0 
0 0 0 0 0 0 0 0 0 
0 0 0 0 0 0 0 0 0 
0 0 0 0 0 0 0 0 0 
0 0 0 0 0 0 0 0 0 
0 0 0 0 0 0 0 0 0 
0 0 0 0 0 0 0 0 0 
0 0 0 0 0 0 0 0 0 
0 0 0 0 0 0 0 0 0 
0 0 0 0 0 0 0 0 0 
0 0 0 0 0 0 0 0 0 
0 0 0 0 0 0 0 0 0 
0 0 0 0 0 0 0 0 0 
0 0 0 0 0 0 0 0 0 
0 0 0 0 0 0 0 0 0 
0 0 0 0 0 0 0 0 0 
0 0 0 0 0 0 0 0 0 
0 0 0 0 0 0 0 0 0 
0 0 0 0 0 0 0 0 0 
0 0 0 0 0 0 0 0 0 
0 0 0 0 0 0 0 0 0 
0 0 0 0 0 0 0 0 0 
0 0 0 0 0 0 0 0 1.6682938666 
1.6682938666 1.6682938666 12.481671415 3.4022610617 44.140155357 44.140155357 44.140155357 177.99464137 177.99464137 
2850.4440385 2850.4440385 8768.5193556 8768.5193556 48384.9121 48384.9121 0 0 0 
0 2.4941898256 2.4941898256 24.057890396 24.057890396 76.255158239 76.255158239 0 0 
0.047698982445 0.047698982445 3.2487352391 3.2487352391 39.490686965 39.490686965 39.490686965 108.2014258 0 
0 0.3026324998 0.3026324998 3.904381186 3.904381186 59.063856236 59.063856236 493.17292742 493.17292742 
4709.1868571 4709.1868571 11223.945208 11223.945208 83581.706113 83581.706113 167.27263647 1069.55158 1069.55158 
1069.55158 6378.0133905 6378.0133905 21561.116785 21561.116785 114475.82632 114475.82632 269.54279495 269.54279495 
1733.8826221 1733.8826221 7800.9515701 7800.9515701 41892.177059 41892.177059 140832.61811 140832.61811 0 
0 0.61382207155 0.61382207155 5.318797171 5.318797171 77.840952336 77.840952336 0 0 
0.9116566074 0.9116566074 8.0083700738 8.0083700738 93.358247837 93.358247837 0 0 1.122119225 
1.122119225 10.315335771 10.315335771 103.82512951 103.82512951 0 0 1.228342294 1.228342294 
0 0 1.2292749846 1.2292749846 11.604656207 11.604656207 109.11312374 109.11312374 11.621322309 
11.621322309 109.16148205 109.16148205 517.80608734 517.80608734 517.80608734 4586.4473984 2568.904094 9059.2229242 
9059.2229242 9059.2229242 61493.896493 61493.896493 162426.83729 162426.83729 759.02323258 759.02323258 5388.7464905 
5388.7464905 10081.326888 10081.326888 76403.859946 76403.859946 184572.19496 184572.19496 944.96783882 944.96783882 
5928.9666702 5928.9666702 5928.9666702 10787.34942 16815.698021 86425.50939 86425.50939 86425.50939 202904.39405 
202904.39405 1047.3464645 1047.3464645 6201.2928255 6201.2928255 1048.2131663 1048.2131663 6203.5354379 6203.5354379 
19766.997894 19766.997894 91543.127592 91543.127592 211959.78623 211959.78623 19851.90355 19851.90355 19851.90355 
111169.86736 91551.70506 213476.47729 213476.47729 213476.47729 0 0 1.1249320396 1.1249320396 
10.366370503 10.366370503 103.97105549 103.97105549 0 0 0.91638916582 0.91638916582 8.097639511 
8.097639511 93.604133108 93.604133108 0 0 0.62053009898 0.62053009898 5.4422634852 5.4422634852 
78.189870991 78.189870991 0 0 0.31175843641 0.31175843641 0 0 0.058464864797 
0.058464864797 3.9163468684 3.9163468684 59.522530338 59.522530338 3.2634576839 3.2634576839 40.0936896 40.0936896 
0 0 0 0 2.5117091104 2.5117091104 24.30998635 24.30998635 0 
0 0 0 1.6873218313 1.6873218313 12.77696334 12.77696334 0 0 
0 0 0 0 0 0 0 0 0 
0 0.81673059086 0.81673059086 4.8297703772 4.8297703772 0.16020462996 0.16020462996 3.0259075131 3.0259075131 
0 0 1.7854801486 1.7854801486 947.61010833 947.61010833 5934.7664679 5934.7664679 17026.842699 
17026.842699 105928.01082 105928.01082 204444.35453 204444.35453 763.54654051 763.54654051 5397.6120186 5397.6120186 
12621.678745 12621.678745 95629.692616 95629.692616 186750.15784 186750.15784 524.6380955 524.6380955 4599.9495216 
4599.9495216 10983.475798 10983.475798 79548.850119 79548.850119 79548.850119 165161.68644 279.35386828 279.35386828 
3559.0875652 3559.0875652 167.86700093 167.86700093 2417.4499441 2417.4499441 9601.4038257 9601.4038257 59429.14863 
59429.14863 7992.2968147 7992.2968147 36435.107864 36435.107864 134.80800633 134.80800633 1321.4927806 1321.4927806 
6293.8124785 6293.8124785 16221.02347 16221.02347 97.181924583 97.181924583 631.87167706 631.87167706 4391.0085674 
4391.0085674 10067.26929 10067.26929 57.84019026 57.84019026 184.65913435 184.65913435 26.864469736 26.864469736 
129.03625882 129.03625882 10.533369772 10.533369772 75.080039951 75.080039951 2446.6801192 2446.6801192 7487.278543 
7487.278543 980.97280489 980.97280489 4972.3545227 4972.3545227 255.99093166 255.99093166 2455.483083 2455.483083 
0 0 0 0 0 0 0.60071222805 0.60071222805 0 
0 0 0 0 0 0.0007705233388 0.0007705233388 0 0 
0 0 0 0 0 0 0 0 0 
0 0 0 0 0 0 0 0 0 
0 0 0 0 0 0 0 0 0 
0 0 0 0 0 0 0 0 0 
0 0 0 0 0 0 0 0 0 
0 0 0 0 0 0 0 0 0 
0 0 0 0 0 0 0 0 0 
0 0 0 0 0 0 0 0 0 
0 0 0 0 0 0 0 0 0 
0 0 0 0 0 0 0 0 0 
0 0 0 0 0 0 0 0 0 
0 0 0 0 0 0 0 0 0 
0 0 0 0 0 0 0 0 0 
0 0 0 0 0 0 0 0 0 
0 0 0 0 0 0 0 0 0 
0 0 0 0 0 0 0 0 0 
0 0 0 0 0 0 0 0 0 
0 0 0 0 0 0 0 0 0 
0 0 0 0 0 0 0 0 0 
0 0 0 3.5258540165 3.5258540165 31.237464882 31.237464882 126.55258909 126.55258909 
781.9363344 781.9363344 1.9635509825 1.9635509825 9.7892256496 9.7892256496 62.568182002 62.568182002 164.23403314 
164.23403314 0.53701172718 0.53701172718 3.1125931111 3.1125931111 20.136766168 20.136766168 89.835005318 89.835005318 
0 0 1.3180839758 1.3180839758 0 0 0.08622260451 0.08622260451 4.0302091734 
4.0302091734 29.313254267 29.313254267 1.8559411799 1.8559411799 5.7407335759 5.7407335759 0 0 
0 0 0.22453400821 0.22453400821 2.0384661538 2.0384661538 0 0 0 
0 0 0 0.22179341088 0.22179341088 0 0 0 0 
0 0 0 0 0 0 0 0 0 
0 0 0 0 0 0 0 0 0 
0 0 0 0 0 0 0 0 0 
0 0 0 0 0 0 0 0 0 
0 0 0 0 0 0 0 0 0 
0 0 0 0 0 0 0 0 0 
0 0 0 0 0 0 0 0 0 
0 0 0 0 0 0 0 0 0 
0 0 0 0 0 0 0 0 0 
0 0 0 0 0 0 0 0 0 
0 0 0 0 0 0 0 0 0 
0 0 0 0 0 0 0 0 0 
0 0 0 0 0 0 0 0 0 
0 0 0 0 0 0 0 0 0 
0 0 287727.68264 287727.68264 118368.3515 118368.3515 13408.097172 13408.097172 5138.7219147 
5138.7219147 353.97631598 353.97631598 55.169764811 55.169764811 3.3379500559 3.3379500559 16.751349046 16.751349046 
727265.61557 727265.61557 158394.92094 158394.92094 44439.720516 44439.720516 1142121.6064 1142121.6064 1495912.3051 
1495912.3051 206510.75509 206510.75509 76104.629975 76104.629975 259783.62985 259783.62985 103235.95262 103235.95262 
7190.5806469 7190.5806469 1074.2393536 1074.2393536 92.194060535 92.194060535 4.2775726459 4.2775726459 4.2775726459 
29.686174646 9077.814775 9077.814775 1889.843763 1889.843763 10939.876646 10939.876646 3138.6678763 3138.6678763 
125.13029455 125.13029455 8.8785435871 8.8785435871 153.3322583 153.3322583 17.350754063 17.350754063 1783819.5969 
1783819.5969 452952.11014 452952.11014 125429.04942 125429.04942 2002623.8715 2002623.8715 653480.57235 653480.57235 
142362.51567 142362.51567 2150199.4093 2150199.4093 2223844.4929 2223844.4929 2224170.4171 2224170.4171 788611.43039 
788611.43039 153790.16266 153790.16266 856644.81974 856644.81974 159542.47445 159542.47445 856620.20878 856620.20878 
159534.74902 159534.74902 12485.495468 12485.495468 4247.7713891 4247.7713891 176.39087005 176.39087005 24.67817926 
24.67817926 20755.90848 20755.90848 5094.4402094 5094.4402094 193.9741324 193.9741324 30.261215972 30.261215972 
29985.983271 29985.983271 5666.2344767 5666.2344767 35068.154202 35068.154202 5954.0801969 5954.0801969 35056.452978 
35056.452978 5953.2435577 5953.2435577 256.06246644 256.06246644 34.094673991 34.094673991 325.16377577 325.16377577 
37.306242992 37.306242992 324.83544051 324.83544051 37.291060821 37.291060821 2150211.2458 2150211.2458 788563.1732 
788563.1732 153762.60167 153762.60167 2002969.5144 2002969.5144 653306.78132 653306.78132 142315.88292 142315.88292 
1784212.5671 1784212.5671 1496040.2072 1496040.2072 1141892.4152 1141892.4152 452579.71317 452579.71317 125357.33948 
125357.33948 259675.97616 259675.97616 103133.96204 103133.96204 206340.10904 206340.10904 75967.591481 75967.591481 
42461.977453 11457.368573 11457.368573 726505.09955 726505.09955 285952.70876 285952.70876 185830.41376 185830.41376 
128560.11679 128560.11679 128560.11679 72628.472441 72628.472441 158255.92094 158255.92094 44264.003431 44264.003431 
118182.32986 118182.32986 13254.594811 13254.594811 74056.030949 74056.030949 9654.7548 9654.7548 26700.199387 
26700.199387 6738.7935569 6738.7935569 10193.760535 10193.760535 3816.6971768 3816.6971768 29950.251692 29950.251692 
5663.7015003 5663.7015003 255.1814889 255.1814889 34.063639545 34.063639545 20695.343756 20695.343756 5090.1512631 
5090.1512631 193.87388885 193.87388885 30.227523568 30.227523568 12478.438612 12478.438612 4241.6327427 4241.6327427 
10930.370063 10930.370063 3130.5809392 3130.5809392 9065.810753 9065.810753 1880.4446361 1880.4446361 176.24846988 
176.24846988 24.63039325 24.63039325 153.14625216 153.14625216 17.288419632 17.288419632 124.89961384 124.89961384 
8.8027713115 8.8027713115 7178.2616942 7178.2616942 1068.9218012 1068.9218012 5124.0792172 5124.0792172 348.18953929 
348.18953929 2865.4308276 2865.4308276 164.59464445 164.59464445 1172.942487 1172.942487 113.02964192 113.02964192 
219.33298721 219.33298721 58.389252467 58.389252467 91.918466262 91.918466262 4.2702868661 4.2702868661 54.849760243 
54.849760243 3.3294869624 3.3294869624 28.191993111 28.191993111 2.3042929449 2.3042929449 11.51008734 11.51008734 
1.2797975549 1.2797975549 3.9233217311 3.9233217311 0.2617812103 0.2617812103 7559.886293 7559.886293 7559.886293 
2266.4953837 17092.448165 6527.8982568 6527.8982568 6527.8982568 1318.5660792 1318.5660792 4012.354678 4012.354678 
561.9084807 561.9084807 3006.4004928 3006.4004928 192.98092434 192.98092434 1148.1327683 1148.1327683 145.45909924 
145.45909924 145.45909924 38.535816714 170.1959794 170.1959794 80.252356708 80.252356708 64.386921107 64.386921107 
9.1375433844 9.1375433844 16.332600502 16.332600502 2.8282151456 2.8282151456 2.8282151456 729.76475752 115.13630086 
115.13630086 115.13630086 40.286566916 40.286566916 8.1465696601 19.217632675 19.217632675 3.2609837535 3.2609837535 
0.77596589582 0.77596589582 3.2602172717 3.2602172717 0.96430309062 0.96430309062 0 0 0.77467289556 
0.77467289556 0 0 0 0 0 0 0 0 
0 0 0 0 0 0 0 0 0 
0 0 0 0 0 0 0 0 0 
0 0 0 0 0 0 0 0 0 
0 0 0 0 0 0 0 0 0 
0 0 0 0 0 0 0 0 0 
0 0 0 0 0 0 0 0 0 
0 0 0 0 0 0 0 0 0 
0 0 0 0 0 0 0 0 0 
0 0 133.28940502 133.28940502 23.41136708 23.41136708 2.4503404465 2.4503404465 0 
0 65.702751393 65.702751393 4.885185297 4.885185297 1.0431089753 1.0431089753 0 0 
0.30523191988 21.712596805 21.712596805 2.6923272721 2.6923272721 4.0470029614 4.0470029614 0.98725883391 0.98725883391 
1.9738758864 1.9738758864 1.9738758864 0 0 0.0028846975157 0.0028846975157 0 0 
0 0 0 0 0 0 0 0 0 
0 0 0 0 0 0 0 0 0 
0 0 0 0 0 0 0 0 0 
0 0 0 0.19677739964 0.19677739964 0 0 0 0 
0 0 0 0 0 0 0 0 0 
0 0 0 0 0 0 0 0 0 
0 0 0 0 0 0 0 0 0 
0 0 0 0 0 0 0 0 0 
0 0 0 0 0 0 0 0 0 
0 0 0 0 0 0 0 0 0 
0 0 0 0 0 0 0 0 0 
0 0 0 0 0 0 0 0 0 
0 0 0 0 0 0 0 0 0 
0 0 0 0 0 0 0 0 0 
0 0 0 0 0 0 0 0 0 
0 0 0 0 0 0 0 0 0 
0 0 0 0 0 0 0 0 0 
0 0 0 0 0 0 0 1.1900337255 1.1900337255 
0 0 0 0 0 0 0 0 0 
0 0 0 0 0 0 0 0.080254280254 1.9401436111 
1.9401436111 1.9401436111 0 0 0 0 0 0 0.54977172997 
0.54977172997 2.6417683124 2.6417683124 0 0 1.0707755995 1.0707755995 1.0707755995 0 
3.274669768 0 0 0 0 0 0 0 0 
0 0 0 0 0 0 0 0 0 
0 0 0 0 0 0 0 0 0 
0 0 0 0 0 0 0 0 0 
0 0 0 0 0 0 1.4957000165 1.4957000165 0 
0 0 0 0 0 0 0 1.8192301723 1.8192301723 
0 0 0 0 0 0 0 0 0 
0 2.0371868611 2.0371868611 0 0 2.1497487835 2.1497487835 0 0 
2.1493369314 2.1493369314 0 0 0 0 0 0 0 
0 0 0 0 0 0 0 0 0 
0 0 0 0 0 0 0 0 0 
0 0 0 0 0 0 0 0 0 
0 0 0 0 0 0 0 0 0 
0 0 0 0 0 0 0 0 0 
0 0 0 0 0 0 0 0 0 
0 0 0 0 0 0 0 0 0 
0 0 2.0360299021 2.0360299021 0 0 0 0 0 
0 0 0 1.8172788275 1.8172788275 0 0 0 0 